 DBCSR| Multiplication driver                                               XSMM
 DBCSR| Multrec recursion limit                                              512
 DBCSR| Multiplication stack size                                           1000
 DBCSR| Maximum elements for images                                    UNLIMITED
 DBCSR| Multiplicative factor virtual images                                   1
 DBCSR| Multiplication size stacks                                             3
 DBCSR| Number of 3D layers                                               SINGLE
 DBCSR| Use MPI memory allocation                                              T
 DBCSR| Use RMA algorithm                                                      F
 DBCSR| Use Communication thread                                               T
 DBCSR| Communication thread load                                             87


  **** **** ******  **  PROGRAM STARTED AT               2021-09-17 21:35:39.060
 ***** ** ***  *** **   PROGRAM STARTED ON                                 dmn05
 **    ****   ******    PROGRAM STARTED BY                                 fabio
 ***** **    ** ** **   PROGRAM PROCESS ID                                171297
  **** **  *******  **  PROGRAM STARTED IN                   /scratch/fabio/5625

 CP2K| version string:                                          CP2K version 6.1
 CP2K| source code revision number:                                    svn:18464
 CP2K| cp2kflags: libint fftw3 libxc parallel mpi3 scalapack xsmm libderiv_max_a
 CP2K|            m1=5 libint_max_am=6
 CP2K| is freely available from                            https://www.cp2k.org/
 CP2K| Program compiled at                          Mon Nov 18 15:44:48 CET 2019
 CP2K| Program compiled on                                          argos.daimon
 CP2K| Program compiled for                                                local
 CP2K| Data directory path               /home/nanobot/apps/CP2K/cp2k-6.1.0/data
 CP2K| Input file name                               DPBIC_double-mixed-cdft.inp

 GLOBAL| Force Environment number                                              1
 GLOBAL| Basis set file name                                           BASIS_SET
 GLOBAL| Potential file name                                           POTENTIAL
 GLOBAL| MM Potential file name                                     MM_POTENTIAL
 GLOBAL| Coordinate file name           DPBIC_double_resid_104_113_align_rec.xyz
 GLOBAL| Force Environment number                                              2
 GLOBAL| Basis set file name                                        BASIS_MOLOPT
 GLOBAL| Potential file name                                           POTENTIAL
 GLOBAL| MM Potential file name                                     MM_POTENTIAL
 GLOBAL| Coordinate file name                                      __STD_INPUT__
 GLOBAL| Force Environment number                                              3
 GLOBAL| Basis set file name                                        BASIS_MOLOPT
 GLOBAL| Potential file name                                           POTENTIAL
 GLOBAL| MM Potential file name                                     MM_POTENTIAL
 GLOBAL| Coordinate file name                                      __STD_INPUT__
 GLOBAL| Method name                                                        CP2K
 GLOBAL| Project name                                    DPBIC_double-mixed-cdft
 GLOBAL| Preferred FFT library                                             FFTW3
 GLOBAL| Preferred diagonalization lib.                                       SL
 GLOBAL| Run type                                                         ENERGY
 GLOBAL| All-to-all communication in single precision                          F
 GLOBAL| FFTs using library dependent lengths                                  F
 GLOBAL| Global print level                                               MEDIUM
 GLOBAL| Total number of message passing processes                            16
 GLOBAL| Number of threads for this process                                    1
 GLOBAL| This output is from process                                           0
 GLOBAL| CPU model name :  Intel(R) Xeon(R) CPU E5-2630 v3 @ 2.40GHz

 MEMORY| system memory details [Kb]
 MEMORY|                        rank 0           min           max       average
 MEMORY| MemTotal            131739556     131739556     131739556     131739556
 MEMORY| MemFree             109201724     109201724     109201724     109201724
 MEMORY| Buffers                     0             0             0             0
 MEMORY| Cached               20620736      20620736      20620736      20620736
 MEMORY| Slab                   263936        263936        263936        263936
 MEMORY| SReclaimable            95176         95176         95176         95176
 MEMORY| MemLikelyFree       129917636     129917636     129917636     129917636


 *** Fundamental physical constants (SI units) ***

 *** Literature: B. J. Mohr and B. N. Taylor,
 ***             CODATA recommended values of the fundamental physical
 ***             constants: 2006, Web Version 5.1
 ***             http://physics.nist.gov/constants

 Speed of light in vacuum [m/s]                             2.99792458000000E+08
 Magnetic constant or permeability of vacuum [N/A**2]       1.25663706143592E-06
 Electric constant or permittivity of vacuum [F/m]          8.85418781762039E-12
 Planck constant (h) [J*s]                                  6.62606896000000E-34
 Planck constant (h-bar) [J*s]                              1.05457162825177E-34
 Elementary charge [C]                                      1.60217648700000E-19
 Electron mass [kg]                                         9.10938215000000E-31
 Electron g factor [ ]                                     -2.00231930436220E+00
 Proton mass [kg]                                           1.67262163700000E-27
 Fine-structure constant                                    7.29735253760000E-03
 Rydberg constant [1/m]                                     1.09737315685270E+07
 Avogadro constant [1/mol]                                  6.02214179000000E+23
 Boltzmann constant [J/K]                                   1.38065040000000E-23
 Atomic mass unit [kg]                                      1.66053878200000E-27
 Bohr radius [m]                                            5.29177208590000E-11

 *** Conversion factors ***

 [u] -> [a.u.]                                              1.82288848426455E+03
 [Angstrom] -> [Bohr] = [a.u.]                              1.88972613288564E+00
 [a.u.] = [Bohr] -> [Angstrom]                              5.29177208590000E-01
 [a.u.] -> [s]                                              2.41888432650478E-17
 [a.u.] -> [fs]                                             2.41888432650478E-02
 [a.u.] -> [J]                                              4.35974393937059E-18
 [a.u.] -> [N]                                              8.23872205491840E-08
 [a.u.] -> [K]                                              3.15774647902944E+05
 [a.u.] -> [kJ/mol]                                         2.62549961709828E+03
 [a.u.] -> [kcal/mol]                                       6.27509468713739E+02
 [a.u.] -> [Pa]                                             2.94210107994716E+13
 [a.u.] -> [bar]                                            2.94210107994716E+08
 [a.u.] -> [atm]                                            2.90362800883016E+08
 [a.u.] -> [eV]                                             2.72113838565563E+01
 [a.u.] -> [Hz]                                             6.57968392072181E+15
 [a.u.] -> [1/cm] (wave numbers)                            2.19474631370540E+05
 [a.u./Bohr**2] -> [1/cm]                                   5.14048714338585E+03
 
 MIXED_ENV| Number of created MPI groups:                                      2
 MIXED_ENV| Task to group correspondence:
  (   0 :    0)  (   1 :    0)  (   2 :    0)  (   3 :    0)
  (   4 :    0)  (   5 :    0)  (   6 :    0)  (   7 :    0)
  (   8 :    1)  (   9 :    1)  (  10 :    1)  (  11 :    1)
  (  12 :    1)  (  13 :    1)  (  14 :    1)  (  15 :    1)

 CELL_TOP| Volume [angstrom^3]:                                        16000.000
 CELL_TOP| Vector a [angstrom    20.000     0.000     0.000    |a| =      20.000
 CELL_TOP| Vector b [angstrom     0.000    20.000     0.000    |b| =      20.000
 CELL_TOP| Vector c [angstrom     0.000     0.000    40.000    |c| =      40.000
 CELL_TOP| Angle (b,c), alpha [degree]:                                   90.000
 CELL_TOP| Angle (a,c), beta  [degree]:                                   90.000
 CELL_TOP| Angle (a,b), gamma [degree]:                                   90.000
 CELL_TOP| Numerically orthorhombic:                                         YES

 GENERATE|  Preliminary Number of Bonds generated:                             0
 GENERATE|  Achieved consistency in connectivity generation.

 CELL| Volume [angstrom^3]:                                            16000.000
 CELL| Vector a [angstrom]:      20.000     0.000     0.000    |a| =      20.000
 CELL| Vector b [angstrom]:       0.000    20.000     0.000    |b| =      20.000
 CELL| Vector c [angstrom]:       0.000     0.000    40.000    |c| =      40.000
 CELL| Angle (b,c), alpha [degree]:                                       90.000
 CELL| Angle (a,c), beta  [degree]:                                       90.000
 CELL| Angle (a,b), gamma [degree]:                                       90.000
 CELL| Numerically orthorhombic:                                             YES

 CELL_REF| Volume [angstrom^3]:                                        16000.000
 CELL_REF| Vector a [angstrom    20.000     0.000     0.000    |a| =      20.000
 CELL_REF| Vector b [angstrom     0.000    20.000     0.000    |b| =      20.000
 CELL_REF| Vector c [angstrom     0.000     0.000    40.000    |c| =      40.000
 CELL_REF| Angle (b,c), alpha [degree]:                                   90.000
 CELL_REF| Angle (a,c), beta  [degree]:                                   90.000
 CELL_REF| Angle (a,b), gamma [degree]:                                   90.000
 CELL_REF| Numerically orthorhombic:                                         YES


 MOLECULE KIND INFORMATION


 All atoms are their own molecule, skipping detailed information

 PW_GRID| Information for grid number                                          6
 PW_GRID| Grid distributed over                                    16 processors
 PW_GRID| Real space group dimensions                                    16    1
 PW_GRID| the grid is blocked:                                                NO
 PW_GRID| Cutoff [a.u.]                                                    150.0
 PW_GRID| spherical cutoff:                                                   NO
 PW_GRID|   Bounds   1           -108     107                Points:         216
 PW_GRID|   Bounds   2           -108     107                Points:         216
 PW_GRID|   Bounds   3           -216     215                Points:         432
 PW_GRID| Volume element (a.u.^3)  0.5357E-02     Volume (a.u.^3)    107973.3533
 PW_GRID| Grid span                                                    FULLSPACE
 PW_GRID|   Distribution                         Average         Max         Min
 PW_GRID|   G-Vectors                          1259712.0     1259712     1259712
 PW_GRID|   G-Rays                                5832.0        5832        5832
 PW_GRID|   Real Space Points                  1259712.0     1306368     1213056

 RS_GRID| Information for grid number                                          6
 RS_GRID|   Bounds   1           -108     107                Points:         216
 RS_GRID|   Bounds   2           -108     107                Points:         216
 RS_GRID|   Bounds   3           -216     215                Points:         432
 RS_GRID| Real space distribution over                                  2 groups
 RS_GRID| Real space distribution along direction                              2
 RS_GRID| Border size                                                         25
 RS_GRID| Real space distribution over                                  8 groups
 RS_GRID| Real space distribution along direction                              3
 RS_GRID| Border size                                                         25
 RS_GRID|   Distribution                         Average         Max         Min
 RS_GRID|   Planes                                 158.0         158         158
 RS_GRID|   Distribution                         Average         Max         Min
 RS_GRID|   Planes                                 104.0         104         104
 
 MIXED_CDFT| Activating mixed CDFT calculation
 MIXED_CDFT| Number of CDFT states:                                            2
 MIXED_CDFT| CDFT states calculation mode: parallel
 MIXED_CDFT| Becke constraint is first built using all available processors
             and then copied to both states with their own processor groups
 MIXED_CDFT| Calculating electronic coupling between states:                   T
 MIXED_CDFT| Calculating electronic coupling reliability metric:               F
 MIXED_CDFT| Configuration interaction (CDFT-CI) was requested:                F
 MIXED_CDFT| Block diagonalizing the mixed CDFT Hamiltonian:                   F
 MIXED_CDFT| Dynamic load balancing enabled:                                   F
 MIXED_CDFT| Matrix inversions calculated with LU decomposition.

  -------------------------- Becke atomic parameters ---------------------------
  Atom   Element  Coefficient     Cutoff (angstrom)       CDFT Radius (angstrom)
     1       Ir         1.000                 2.650                        1.220
     2        C         1.000                 2.650                        0.670
     3        C         1.000                 2.650                        0.670
     4        N         1.000                 2.650                        0.710
     5        C         1.000                 2.650                        0.670
     6        N         1.000                 2.650                        0.710
     7        C         1.000                 2.650                        0.670
     8        C         1.000                 2.650                        0.670
     9        C         1.000                 2.650                        0.670
    10        H         1.000                 2.280                        0.320
    11        C         1.000                 2.650                        0.670
    12        H         1.000                 2.280                        0.320
    13        C         1.000                 2.650                        0.670
    14        H         1.000                 2.280                        0.320
    15        C         1.000                 2.650                        0.670
    16        H         1.000                 2.280                        0.320
    17        C         1.000                 2.650                        0.670
    18        H         1.000                 2.280                        0.320
    19        C         1.000                 2.650                        0.670
    20        H         1.000                 2.280                        0.320
    21        C         1.000                 2.650                        0.670
    22        H         1.000                 2.280                        0.320
    23        C         1.000                 2.650                        0.670
    24        H         1.000                 2.280                        0.320
    25        C         1.000                 2.650                        0.670
    26        C         1.000                 2.650                        0.670
    27        H         1.000                 2.280                        0.320
    28        C         1.000                 2.650                        0.670
    29        H         1.000                 2.280                        0.320
    30        C         1.000                 2.650                        0.670
    31        H         1.000                 2.280                        0.320
    32        C         1.000                 2.650                        0.670
    33        H         1.000                 2.280                        0.320
    34        C         1.000                 2.650                        0.670
    35        H         1.000                 2.280                        0.320
    36        C         1.000                 2.650                        0.670
    37        C         1.000                 2.650                        0.670
    38        N         1.000                 2.650                        0.710
    39        C         1.000                 2.650                        0.670
    40        N         1.000                 2.650                        0.710
    41        C         1.000                 2.650                        0.670
    42        C         1.000                 2.650                        0.670
    43        C         1.000                 2.650                        0.670
    44        H         1.000                 2.280                        0.320
    45        C         1.000                 2.650                        0.670
    46        H         1.000                 2.280                        0.320
    47        C         1.000                 2.650                        0.670
    48        H         1.000                 2.280                        0.320
    49        C         1.000                 2.650                        0.670
    50        H         1.000                 2.280                        0.320
    51        C         1.000                 2.650                        0.670
    52        H         1.000                 2.280                        0.320
    53        C         1.000                 2.650                        0.670
    54        H         1.000                 2.280                        0.320
    55        C         1.000                 2.650                        0.670
    56        H         1.000                 2.280                        0.320
    57        C         1.000                 2.650                        0.670
    58        H         1.000                 2.280                        0.320
    59        C         1.000                 2.650                        0.670
    60        C         1.000                 2.650                        0.670
    61        H         1.000                 2.280                        0.320
    62        C         1.000                 2.650                        0.670
    63        H         1.000                 2.280                        0.320
    64        C         1.000                 2.650                        0.670
    65        H         1.000                 2.280                        0.320
    66        C         1.000                 2.650                        0.670
    67        H         1.000                 2.280                        0.320
    68        C         1.000                 2.650                        0.670
    69        H         1.000                 2.280                        0.320
    70        C         1.000                 2.650                        0.670
    71        C         1.000                 2.650                        0.670
    72        N         1.000                 2.650                        0.710
    73        C         1.000                 2.650                        0.670
    74        N         1.000                 2.650                        0.710
    75        C         1.000                 2.650                        0.670
    76        C         1.000                 2.650                        0.670
    77        C         1.000                 2.650                        0.670
    78        H         1.000                 2.280                        0.320
    79        C         1.000                 2.650                        0.670
    80        H         1.000                 2.280                        0.320
    81        C         1.000                 2.650                        0.670
    82        H         1.000                 2.280                        0.320
    83        C         1.000                 2.650                        0.670
    84        H         1.000                 2.280                        0.320
    85        C         1.000                 2.650                        0.670
    86        H         1.000                 2.280                        0.320
    87        C         1.000                 2.650                        0.670
    88        H         1.000                 2.280                        0.320
    89        C         1.000                 2.650                        0.670
    90        H         1.000                 2.280                        0.320
    91        C         1.000                 2.650                        0.670
    92        H         1.000                 2.280                        0.320
    93        C         1.000                 2.650                        0.670
    94        C         1.000                 2.650                        0.670
    95        H         1.000                 2.280                        0.320
    96        C         1.000                 2.650                        0.670
    97        H         1.000                 2.280                        0.320
    98        C         1.000                 2.650                        0.670
    99        H         1.000                 2.280                        0.320
   100        C         1.000                 2.650                        0.670
   101        H         1.000                 2.280                        0.320
   102        C         1.000                 2.650                        0.670
   103        H         1.000                 2.280                        0.320
   104       Ir        -1.000                 2.650                        1.220
   105        C        -1.000                 2.650                        0.670
   106        C        -1.000                 2.650                        0.670
   107        N        -1.000                 2.650                        0.710
   108        C        -1.000                 2.650                        0.670
   109        N        -1.000                 2.650                        0.710
   110        C        -1.000                 2.650                        0.670
   111        C        -1.000                 2.650                        0.670
   112        C        -1.000                 2.650                        0.670
   113        H        -1.000                 2.280                        0.320
   114        C        -1.000                 2.650                        0.670
   115        H        -1.000                 2.280                        0.320
   116        C        -1.000                 2.650                        0.670
   117        H        -1.000                 2.280                        0.320
   118        C        -1.000                 2.650                        0.670
   119        H        -1.000                 2.280                        0.320
   120        C        -1.000                 2.650                        0.670
   121        H        -1.000                 2.280                        0.320
   122        C        -1.000                 2.650                        0.670
   123        H        -1.000                 2.280                        0.320
   124        C        -1.000                 2.650                        0.670
   125        H        -1.000                 2.280                        0.320
   126        C        -1.000                 2.650                        0.670
   127        H        -1.000                 2.280                        0.320
   128        C        -1.000                 2.650                        0.670
   129        C        -1.000                 2.650                        0.670
   130        H        -1.000                 2.280                        0.320
   131        C        -1.000                 2.650                        0.670
   132        H        -1.000                 2.280                        0.320
   133        C        -1.000                 2.650                        0.670
   134        H        -1.000                 2.280                        0.320
   135        C        -1.000                 2.650                        0.670
   136        H        -1.000                 2.280                        0.320
   137        C        -1.000                 2.650                        0.670
   138        H        -1.000                 2.280                        0.320
   139        C        -1.000                 2.650                        0.670
   140        C        -1.000                 2.650                        0.670
   141        N        -1.000                 2.650                        0.710
   142        C        -1.000                 2.650                        0.670
   143        N        -1.000                 2.650                        0.710
   144        C        -1.000                 2.650                        0.670
   145        C        -1.000                 2.650                        0.670
   146        C        -1.000                 2.650                        0.670
   147        H        -1.000                 2.280                        0.320
   148        C        -1.000                 2.650                        0.670
   149        H        -1.000                 2.280                        0.320
   150        C        -1.000                 2.650                        0.670
   151        H        -1.000                 2.280                        0.320
   152        C        -1.000                 2.650                        0.670
   153        H        -1.000                 2.280                        0.320
   154        C        -1.000                 2.650                        0.670
   155        H        -1.000                 2.280                        0.320
   156        C        -1.000                 2.650                        0.670
   157        H        -1.000                 2.280                        0.320
   158        C        -1.000                 2.650                        0.670
   159        H        -1.000                 2.280                        0.320
   160        C        -1.000                 2.650                        0.670
   161        H        -1.000                 2.280                        0.320
   162        C        -1.000                 2.650                        0.670
   163        C        -1.000                 2.650                        0.670
   164        H        -1.000                 2.280                        0.320
   165        C        -1.000                 2.650                        0.670
   166        H        -1.000                 2.280                        0.320
   167        C        -1.000                 2.650                        0.670
   168        H        -1.000                 2.280                        0.320
   169        C        -1.000                 2.650                        0.670
   170        H        -1.000                 2.280                        0.320
   171        C        -1.000                 2.650                        0.670
   172        H        -1.000                 2.280                        0.320
   173        C        -1.000                 2.650                        0.670
   174        C        -1.000                 2.650                        0.670
   175        N        -1.000                 2.650                        0.710
   176        C        -1.000                 2.650                        0.670
   177        N        -1.000                 2.650                        0.710
   178        C        -1.000                 2.650                        0.670
   179        C        -1.000                 2.650                        0.670
   180        C        -1.000                 2.650                        0.670
   181        H        -1.000                 2.280                        0.320
   182        C        -1.000                 2.650                        0.670
   183        H        -1.000                 2.280                        0.320
   184        C        -1.000                 2.650                        0.670
   185        H        -1.000                 2.280                        0.320
   186        C        -1.000                 2.650                        0.670
   187        H        -1.000                 2.280                        0.320
   188        C        -1.000                 2.650                        0.670
   189        H        -1.000                 2.280                        0.320
   190        C        -1.000                 2.650                        0.670
   191        H        -1.000                 2.280                        0.320
   192        C        -1.000                 2.650                        0.670
   193        H        -1.000                 2.280                        0.320
   194        C        -1.000                 2.650                        0.670
   195        H        -1.000                 2.280                        0.320
   196        C        -1.000                 2.650                        0.670
   197        C        -1.000                 2.650                        0.670
   198        H        -1.000                 2.280                        0.320
   199        C        -1.000                 2.650                        0.670
   200        H        -1.000                 2.280                        0.320
   201        C        -1.000                 2.650                        0.670
   202        H        -1.000                 2.280                        0.320
   203        C        -1.000                 2.650                        0.670
   204        H        -1.000                 2.280                        0.320
   205        C        -1.000                 2.650                        0.670
   206        H        -1.000                 2.280                        0.320
  ------------------------------------------------------------------------------
 
 MIXED_CDFT| Becke constraint built in   11.4 seconds
 

  ------------------------- CDFT coupling information --------------------------
  Information at step (fs):                                                 0.00

  ############################################
  ###### CDFT states I =  1 and J =   2 ######
  ############################################
  Atomic group:                                                                1
  Strength of constraint I:                                       0.026608020948
  Strength of constraint J:                                      -0.071324547642
  Final value of constraint I:                                   -0.999507528239
  Final value of constraint J:                                    1.000980016503

  Overlap between states I and J:                                 0.109276639084
  Charge transfer energy (J-I) (Hartree):                         0.008109957205

  Diabatic electronic coupling (rotation, mHartree):              3.458944510032
  ------------------------------------------------------------------------------
 NO FORCE_EVAL section calculated the dipole

 ENERGY| Total FORCE_EVAL ( MIXED ) energy (a.u.):         -1024.127209563278939


 -------------------------------------------------------------------------------
 -                                                                             -
 -                                DBCSR STATISTICS                             -
 -                                                                             -
 -------------------------------------------------------------------------------
 COUNTER                                    TOTAL       BLAS       SMM       ACC
 flops   544 x    89 x   544            158029824     100.0%      0.0%      0.0%
 flops   544 x    90 x   544            159805440     100.0%      0.0%      0.0%
 flops   544 x    96 x   544            340918272     100.0%      0.0%      0.0%
 flops    26 x    25 x    26            402490400       0.0%    100.0%      0.0%
 flops    26 x    26 x    26            418308800       0.0%    100.0%      0.0%
 flops   512 x    89 x   544            446201856     100.0%      0.0%      0.0%
 flops   544 x    89 x   512            446201856     100.0%      0.0%      0.0%
 flops   512 x    90 x   544            451215360     100.0%      0.0%      0.0%
 flops   544 x    90 x   512            451215360     100.0%      0.0%      0.0%
 flops   544 x    64 x   544            454557696     100.0%      0.0%      0.0%
 flops    26 x    26 x    89            591652776       0.0%    100.0%      0.0%
 flops    26 x    26 x    90            598300560       0.0%    100.0%      0.0%
 flops   544 x    96 x   512            962592768     100.0%      0.0%      0.0%
 flops   512 x    96 x   544            962592768     100.0%      0.0%      0.0%
 flops   512 x    89 x   512           1259864064     100.0%      0.0%      0.0%
 flops   512 x    90 x   512           1274019840     100.0%      0.0%      0.0%
 flops    26 x    26 x    96           1276374528       0.0%    100.0%      0.0%
 flops   512 x    64 x   544           1283457024     100.0%      0.0%      0.0%
 flops   544 x    64 x   512           1283457024     100.0%      0.0%      0.0%
 flops    26 x    26 x    64           1701832704       0.0%    100.0%      0.0%
 flops    26 x     5 x    89           1972175920       0.0%    100.0%      0.0%
 flops    26 x     5 x    90           1994335200       0.0%    100.0%      0.0%
 flops     5 x    25 x    26           2186606500       0.0%    100.0%      0.0%
 flops    26 x    25 x     5           2186606500       0.0%    100.0%      0.0%
 flops     5 x    26 x    26           2272543000       0.0%    100.0%      0.0%
 flops    26 x    26 x     5           2272543000       0.0%    100.0%      0.0%
 flops     5 x    26 x    89           2313514060       0.0%    100.0%      0.0%
 flops     5 x    26 x    90           2339508600       0.0%    100.0%      0.0%
 flops   512 x    96 x   512           2717908992     100.0%      0.0%      0.0%
 flops   512 x    64 x   512           3623878656     100.0%      0.0%      0.0%
 flops    26 x     5 x    96           4254581760       0.0%    100.0%      0.0%
 flops   154 x    90 x    90           4804984800       0.0%    100.0%      0.0%
 flops     5 x    26 x    96           4990951680       0.0%    100.0%      0.0%
 flops   160 x    90 x    90           4992192000       0.0%    100.0%      0.0%
 flops   154 x    90 x    96           5125317120       0.0%    100.0%      0.0%
 flops   154 x    96 x    90           5125317120       0.0%    100.0%      0.0%
 flops   153 x    89 x    89           5240311812       0.0%    100.0%      0.0%
 flops   160 x    96 x    90           5325004800       0.0%    100.0%      0.0%
 flops   160 x    90 x    96           5325004800       0.0%    100.0%      0.0%
 flops   154 x    96 x    96           5467004928       0.0%    100.0%      0.0%
 flops   160 x    89 x    89           5480064640       0.0%    100.0%      0.0%
 flops   153 x    89 x    96           5652471168       0.0%    100.0%      0.0%
 flops   153 x    96 x    89           5652471168       0.0%    100.0%      0.0%
 flops    26 x     5 x    64           5672775680       0.0%    100.0%      0.0%
 flops   160 x    96 x    89           5911080960       0.0%    100.0%      0.0%
 flops   160 x    89 x    96           5911080960       0.0%    100.0%      0.0%
 flops   153 x    96 x    96           6097047552       0.0%    100.0%      0.0%
 flops     5 x    26 x    64           6654602240       0.0%    100.0%      0.0%
 flops   154 x    64 x    90           6833756160       0.0%    100.0%      0.0%
 flops   154 x    90 x    64           6833756160       0.0%    100.0%      0.0%
 flops   160 x    64 x    90           7100006400       0.0%    100.0%      0.0%
 flops   160 x    90 x    64           7100006400       0.0%    100.0%      0.0%
 flops   154 x    64 x    96           7289339904       0.0%    100.0%      0.0%
 flops   154 x    96 x    64           7289339904       0.0%    100.0%      0.0%
 flops   153 x    64 x    89           7536628224       0.0%    100.0%      0.0%
 flops   153 x    89 x    64           7536628224       0.0%    100.0%      0.0%
 flops   160 x    64 x    89           7881441280       0.0%    100.0%      0.0%
 flops   160 x    89 x    64           7881441280       0.0%    100.0%      0.0%
 flops   153 x    64 x    96           8129396736       0.0%    100.0%      0.0%
 flops   153 x    96 x    64           8129396736       0.0%    100.0%      0.0%
 flops    13 x    26 x    89           8184530068       0.0%    100.0%      0.0%
 flops    13 x    26 x    90           8276491080       0.0%    100.0%      0.0%
 flops    13 x    25 x    26           8905100100       0.0%    100.0%      0.0%
 flops    26 x    25 x    13           8905100100       0.0%    100.0%      0.0%
 flops    13 x    26 x    26           9255082200       0.0%    100.0%      0.0%
 flops    26 x    26 x    13           9255082200       0.0%    100.0%      0.0%
 flops    26 x    13 x    89           9269226824       0.0%    100.0%      0.0%
 flops    26 x    32 x    26           9270263808       0.0%    100.0%      0.0%
 flops    26 x    13 x    90           9373375440       0.0%    100.0%      0.0%
 flops   154 x    64 x    64           9719119872       0.0%    100.0%      0.0%
 flops   153 x    64 x    64          10839195648       0.0%    100.0%      0.0%
 flops   160 x    96 x    96          12056002560       0.0%    100.0%      0.0%
 flops     5 x     5 x    89          14608980650       0.0%    100.0%      0.0%
 flops     5 x    25 x     5          14617070000       0.0%    100.0%      0.0%
 flops     5 x     5 x    90          14773126500       0.0%    100.0%      0.0%
 flops     5 x    26 x     5          15191540000       0.0%    100.0%      0.0%
 flops   160 x    96 x    64          16074670080       0.0%    100.0%      0.0%
 flops   160 x    64 x    96          16074670080       0.0%    100.0%      0.0%
 flops    13 x    26 x    96          17656514304       0.0%    100.0%      0.0%
 flops    26 x    13 x    96          19996534272       0.0%    100.0%      0.0%
 flops   160 x    64 x    64          21432893440       0.0%    100.0%      0.0%
 flops    13 x    26 x    64          23542019072       0.0%    100.0%      0.0%
 flops    26 x    13 x    64          26662045696       0.0%    100.0%      0.0%
 flops     5 x     5 x    96          31516003200       0.0%    100.0%      0.0%
 flops   153 x    89 x   492          36003456936     100.0%      0.0%      0.0%
 flops   154 x    90 x   492          36645950880     100.0%      0.0%      0.0%
 flops   153 x    89 x   508          37174301064     100.0%      0.0%      0.0%
 flops   160 x    89 x   492          37650673920     100.0%      0.0%      0.0%
 flops   154 x    90 x   508          37837689120     100.0%      0.0%      0.0%
 flops   160 x    90 x   492          38073715200     100.0%      0.0%      0.0%
 flops   153 x    96 x   492          38835189504     100.0%      0.0%      0.0%
 flops   160 x    89 x   508          38875086080     100.0%      0.0%      0.0%
 flops   153 x    89 x   532          38930567256     100.0%      0.0%      0.0%
 flops   154 x    96 x   492          39089014272     100.0%      0.0%      0.0%
 flops   160 x    90 x   508          39311884800     100.0%      0.0%      0.0%
 flops   154 x    90 x   532          39625296480     100.0%      0.0%      0.0%
 flops   153 x    96 x   508          40098122496     100.0%      0.0%      0.0%
 flops   154 x    96 x   508          40360201728     100.0%      0.0%      0.0%
 flops   160 x    89 x   532          40711704320     100.0%      0.0%      0.0%
 flops   160 x    90 x   532          41169139200     100.0%      0.0%      0.0%
 flops   153 x    96 x   532          41992521984     100.0%      0.0%      0.0%
 flops     5 x     5 x    64          42021337600       0.0%    100.0%      0.0%
 flops   154 x    96 x   532          42266982912     100.0%      0.0%      0.0%
 flops    26 x    32 x     5          50362490880       0.0%    100.0%      0.0%
 flops     5 x    32 x    26          50362490880       0.0%    100.0%      0.0%
 flops   153 x    64 x   492          51780252672     100.0%      0.0%      0.0%
 flops   154 x    64 x   492          52118685696     100.0%      0.0%      0.0%
 flops   153 x    64 x   508          53464163328     100.0%      0.0%      0.0%
 flops   154 x    64 x   508          53813602304     100.0%      0.0%      0.0%
 flops   153 x    64 x   532          55990029312     100.0%      0.0%      0.0%
 flops   154 x    64 x   532          56355977216     100.0%      0.0%      0.0%
 flops     5 x    13 x    89          57743035350       0.0%    100.0%      0.0%
 flops    13 x     5 x    89          58027483800       0.0%    100.0%      0.0%
 flops     5 x    13 x    90          58391833500       0.0%    100.0%      0.0%
 flops    13 x     5 x    90          58679478000       0.0%    100.0%      0.0%
 flops     5 x    25 x    13          59067401250       0.0%    100.0%      0.0%
 flops    13 x    25 x     5          59067401250       0.0%    100.0%      0.0%
 flops  1040 x    90 x    90          60518016000     100.0%      0.0%      0.0%
 flops  1040 x    89 x    89          60927064640     100.0%      0.0%      0.0%
 flops     5 x    26 x    13          61388827500       0.0%    100.0%      0.0%
 flops    13 x    26 x     5          61388827500       0.0%    100.0%      0.0%
 flops  1040 x    96 x    90          64552550400     100.0%      0.0%      0.0%
 flops  1040 x    90 x    96          64552550400     100.0%      0.0%      0.0%
 flops  1040 x    96 x    89          65719080960     100.0%      0.0%      0.0%
 flops  1040 x    89 x    96          65719080960     100.0%      0.0%      0.0%
 flops   160 x    96 x   492          81223925760     100.0%      0.0%      0.0%
 flops   160 x    96 x   508          83865354240     100.0%      0.0%      0.0%
 flops  1040 x    64 x    90          86070067200     100.0%      0.0%      0.0%
 flops  1040 x    90 x    64          86070067200     100.0%      0.0%      0.0%
 flops  1040 x    64 x    89          87625441280     100.0%      0.0%      0.0%
 flops  1040 x    89 x    64          87625441280     100.0%      0.0%      0.0%
 flops   160 x    96 x   532          87827496960     100.0%      0.0%      0.0%
 flops   160 x    64 x   492         108298567680     100.0%      0.0%      0.0%
 flops   160 x    64 x   508         111820472320     100.0%      0.0%      0.0%
 flops   160 x    64 x   532         117103329280     100.0%      0.0%      0.0%
 flops     5 x    13 x    96         124569244800       0.0%    100.0%      0.0%
 flops    13 x     5 x    96         125182886400       0.0%    100.0%      0.0%
 flops  1040 x    96 x    96         139744051200     100.0%      0.0%      0.0%
 flops     5 x    13 x    64         166092326400       0.0%    100.0%      0.0%
 flops    13 x     5 x    64         166910515200       0.0%    100.0%      0.0%
 flops  1040 x    96 x    64         186325401600     100.0%      0.0%      0.0%
 flops  1040 x    64 x    96         186325401600     100.0%      0.0%      0.0%
 flops    26 x    32 x    13         205104586752       0.0%    100.0%      0.0%
 flops    13 x    32 x    26         205104586752       0.0%    100.0%      0.0%
 flops    13 x    13 x    89         233949368510       0.0%    100.0%      0.0%
 flops    13 x    25 x    13         235557506600       0.0%    100.0%      0.0%
 flops    13 x    13 x    90         236578013100       0.0%    100.0%      0.0%
 flops    13 x    26 x    13         244815225200       0.0%    100.0%      0.0%
 flops  1040 x    64 x    64         248433868800     100.0%      0.0%      0.0%
 flops  1040 x    89 x   492         314040529920     100.0%      0.0%      0.0%
 flops  1040 x    90 x   492         317569075200     100.0%      0.0%      0.0%
 flops  1040 x    89 x   508         324253230080     100.0%      0.0%      0.0%
 flops  1040 x    90 x   508         327896524800     100.0%      0.0%      0.0%
 flops     5 x    32 x     5         336664166400       0.0%    100.0%      0.0%
 flops  1040 x    89 x   532         339572280320     100.0%      0.0%      0.0%
 flops  1040 x    90 x   532         343387699200     100.0%      0.0%      0.0%
 flops    13 x    13 x    96         504699761280       0.0%    100.0%      0.0%
 flops    13 x    13 x    64         672933015040       0.0%    100.0%      0.0%
 flops  1040 x    96 x   492         677480693760     100.0%      0.0%      0.0%
 flops  1040 x    96 x   508         699512586240     100.0%      0.0%      0.0%
 flops  1040 x    96 x   532         732560424960     100.0%      0.0%      0.0%
 flops  1040 x    64 x   492         903307591680     100.0%      0.0%      0.0%
 flops  1040 x    64 x   508         932683448320     100.0%      0.0%      0.0%
 flops  1040 x    64 x   532         976747233280     100.0%      0.0%      0.0%
 flops     5 x    32 x    13        1360455782400       0.0%    100.0%      0.0%
 flops    13 x    32 x     5        1360455782400       0.0%    100.0%      0.0%
 flops    13 x    32 x    13        5425421893632       0.0%    100.0%      0.0%
 flops inhomo. stacks               3043090026520     100.0%      0.0%      0.0%
 flops total                        25.833099E+12      50.5%     49.5%      0.0%
 flops max/rank                      1.990629E+12      50.4%     49.6%      0.0%
 matmuls inhomo. stacks                     70576     100.0%      0.0%      0.0%
 matmuls total                         1725539216       0.0%    100.0%      0.0%
 number of processed stacks               3792720      10.5%     89.5%      0.0%
 average stack size                                     1.0     508.4       0.0
 marketing flops                    38.346173E+12
 -------------------------------------------------------------------------------
 # multiplications                          13329
 max memory usage/rank               2.397352E+09
 # max total images/rank                        2
 # max 3D layers                                1
 # MPI messages exchanged                 1857096
 MPI messages size (bytes):
  total size                         1.236742E+12
  min size                          32.768000E+03
  max size                           4.559360E+06
  average size                     665.954562E+03
 MPI breakdown and total messages size (bytes):
             size <=      128                   0                        0
       128 < size <=     8192                   0                        0
      8192 < size <=    32768               92796               3040739328
     32768 < size <=   131072              376500              24838448952
    131072 < size <=  4194304             1325736             935493455616
   4194304 < size <= 16777216               62064             273333166080
  16777216 < size                               0                        0
 -------------------------------------------------------------------------------

 MEMORY| Estimated peak process memory [MiB]                                2287

 -------------------------------------------------------------------------------
 ----                             MULTIGRID INFO                            ----
 -------------------------------------------------------------------------------
 total grid count     :             0              cutoff [a.u.]          150.00

 -------------------------------------------------------------------------------
 -                                                                             -
 -                         MESSAGE PASSING PERFORMANCE                         -
 -                                                                             -
 -------------------------------------------------------------------------------

 ROUTINE             CALLS      AVE VOLUME [Bytes]
 MP_Group             5332
 MP_Bcast             1169                 987810.
 MP_Allreduce        88765                    102.
 MP_Sync                 7
 MP_Alltoall        142675               18033695.
 MP_ISendRecv        50295                 316368.
 MP_Wait            747675
 MP_comm_split           1
 MP_ISend           359489                 590261.
 MP_IRecv           359497                 587130.
 MP_Recv              1216                 532480.
 MP_Memory          834000
 MP_Write_All            2                4300128.
 -------------------------------------------------------------------------------


 -------------------------------------------------------------------------------
 -                                                                             -
 -                           R E F E R E N C E S                               -
 -                                                                             -
 -------------------------------------------------------------------------------
 
 CP2K version 6.1, the CP2K developers group (2018).
 CP2K is freely available from https://www.cp2k.org/ .

 Holmberg, N; Laasonen, K. 
 Journal of Chemical Theory and Computation, 13 (2), (2017). 
 Efficient Constrained Density Functional Theory Implementation for Simulation of
 Condensed Phase Electron Transfer Reactions.
 http://dx.doi.org/10.1021/acs.jctc.6b01085


 Schuett, Ole; Messmer, Peter; Hutter, Juerg; VandeVondele, Joost. 
 Electronic Structure Calculations on Graphics Processing Units, John Wiley & Sons, Ltd, 173-190 (2016). 
 GPU-Accelerated Sparse Matrix-Matrix Multiplication for Linear Scaling Density Functional Theory.
 http://dx.doi.org/10.1002/9781118670712.ch8


 Borstnik, U; VandeVondele, J; Weber, V; Hutter, J. 
 PARALLEL COMPUTING, 40 (5-6), 47-58 (2014). 
 Sparse matrix multiplication: The distributed block-compressed sparse
 row library.
 http://dx.doi.org/10.1016/j.parco.2014.03.012


 Hutter, J; Iannuzzi, M; Schiffmann, F; VandeVondele, J. 
 WILEY INTERDISCIPLINARY REVIEWS-COMPUTATIONAL MOLECULAR SCIENCE, 4 (1), 15-25 (2014). 
 CP2K: atomistic simulations of condensed matter systems.
 http://dx.doi.org/10.1002/wcms.1159


 Weber, V; VandeVondele, J; Hutter, J; Niklasson, AMN. 
 JOURNAL OF CHEMICAL PHYSICS, 128 (8), 084113 (2008). 
 Direct energy functional minimization under orthogonality constraints.
 http://dx.doi.org/10.1063/1.2841077


 VandeVondele, J; Hutter, J. 
 JOURNAL OF CHEMICAL PHYSICS, 127 (11), 114105 (2007). 
 Gaussian basis sets for accurate calculations on molecular systems in
 gas and condensed phases.
 http://dx.doi.org/10.1063/1.2770708


 Genovese, L; Deutsch, T; Goedecker, S. 
 JOURNAL OF CHEMICAL PHYSICS, 127 (5), 054704 (2007). 
 Efficient and accurate three-dimensional Poisson solver for surface
 problems.
 http://dx.doi.org/10.1063/1.2754685


 Genovese, L; Deutsch, T; Neelov, A; Goedecker, S; Beylkin, G. 
 JOURNAL OF CHEMICAL PHYSICS, 125 (7), 074105 (2006). 
 Efficient solution of Poisson's equation with free boundary conditions.
 http://dx.doi.org/10.1063/1.2335442


 Krack, M. 
 THEORETICAL CHEMISTRY ACCOUNTS, 114 (1-3), 145-152 (2005). 
 Pseudopotentials for H to Kr optimized for gradient-corrected
 exchange-correlation functionals.
 http://dx.doi.org/10.1007/s00214-005-0655-y


 VandeVondele, J; Krack, M; Mohamed, F; Parrinello, M; Chassaing, T;
 Hutter, J. COMPUTER PHYSICS COMMUNICATIONS, 167 (2), 103-128 (2005). 
 QUICKSTEP: Fast and accurate density functional calculations using a
 mixed Gaussian and plane waves approach.
 http://dx.doi.org/10.1016/j.cpc.2004.12.014


 Frigo, M; Johnson, SG. 
 PROCEEDINGS OF THE IEEE, 93 (2), 216-231 (2005). 
 The design and implementation of FFTW3.
 http://dx.doi.org/10.1109/JPROC.2004.840301


 VandeVondele, J; Hutter, J. 
 JOURNAL OF CHEMICAL PHYSICS, 118 (10), 4365-4369 (2003). 
 An efficient orbital transformation method for electronic structure
 calculations.
 http://dx.doi.org/10.1063/1.1543154


 Hartwigsen, C; Goedecker, S; Hutter, J. 
 PHYSICAL REVIEW B, 58 (7), 3641-3662 (1998). 
 Relativistic separable dual-space Gaussian pseudopotentials from H to Rn.
 http://dx.doi.org/10.1103/PhysRevB.58.3641


 Lippert, G; Hutter, J; Parrinello, M. 
 MOLECULAR PHYSICS, 92 (3), 477-487 (1997). 
 A hybrid Gaussian and plane wave density functional scheme.
 http://dx.doi.org/10.1080/002689797170220


 Perdew, JP; Burke, K; Ernzerhof, M. 
 PHYSICAL REVIEW LETTERS, 77 (18), 3865-3868 (1996). 
 Generalized gradient approximation made simple.
 http://dx.doi.org/10.1103/PhysRevLett.77.3865


 Goedecker, S; Teter, M; Hutter, J. 
 PHYSICAL REVIEW B, 54 (3), 1703-1710 (1996). 
 Separable dual-space Gaussian pseudopotentials.
 http://dx.doi.org/10.1103/PhysRevB.54.1703


 Becke, AD. JOURNAL OF CHEMICAL PHYSICS, 88 (4), 2547-2553 (1988). 
 A multicenter numerical integration scheme for polyatomic molecules.
 http://dx.doi.org/10.1063/1.454033


 -------------------------------------------------------------------------------
 -                                                                             -
 -                                T I M I N G                                  -
 -                                                                             -
 -------------------------------------------------------------------------------
 SUBROUTINE                       CALLS  ASD         SELF TIME        TOTAL TIME
                                MAXIMUM       AVERAGE  MAXIMUM  AVERAGE  MAXIMUM
 CP2K                                 1  1.0     0.01     0.02 10313.13 10313.20
 qs_energies                          1  2.0     0.00     0.00  9989.24 10299.82
 cdft_scf_loop                        1  3.0     0.00     0.01  9982.52 10293.20
 scf_env_do_scf                      76  4.0     0.00     0.01  9981.35 10292.13
 scf_env_do_scf_inner_loop          865  5.0     0.04     0.10  9298.80 10077.92
 qs_ks_update_qs_env                880  6.0     0.01     0.01  7133.36  7387.23
 rebuild_ks_matrix                  865  7.0     0.00     0.00  7131.73  7385.51
 qs_ks_build_kohn_sham_matrix       865  8.0     0.12     0.13  7131.72  7385.51
 pw_transfer                      25640 10.5     1.52     1.68  5246.81  5715.94
 fft_wrap_pw1pw2                  25640 11.5     0.25     0.28  5245.30  5714.28
 fft_wrap_pw1pw2_150              15204 12.8   276.67   301.75  5049.66  5511.24
 qs_vxc_create                      865  9.0     0.01     0.02  4333.59  4496.75
 fft3d_ps                         25640 13.5  2692.66  2819.16  3981.55  4394.26
 xc_rho_set_and_dset_create         865 11.0    33.33    36.06  2769.37  3174.09
 xc_vxc_pw_create                   438 10.0    36.49    39.22  2908.77  2935.08
 qs_rho_update_rho                  866  6.0     0.01     0.01  2473.76  2624.43
 calculate_rho_elec                1732  7.0   992.13  1088.43  2473.75  2624.42
 density_rs2pw                     1732  8.0     0.09     0.10  1443.51  1578.67
 xc_exc_calc                        427 10.0     3.69     4.07  1424.81  1561.66
 pw_poisson_solve                   865  9.0    53.55    56.47  1480.18  1555.62
 init_scf_loop                       79  5.0     0.00     0.00   682.16  1150.35
 xc_functional_eval                 865 12.0     0.01     0.01   837.28  1149.93
 pbe_lsd_eval                       865 13.0   837.27  1149.92   837.27  1149.92
 sum_up_and_integrate               438  9.0    19.66    20.07  1085.61  1099.76
 integrate_v_rspace                 877 10.0   554.61   584.08  1067.12  1080.93
 ps_wavelet_solve                   865 10.0   716.32   785.34   818.63   861.58
 mp_alltoall_z22v                 25640 15.5   590.11   857.89   590.11   857.89
 yz_to_x                          13031 13.7   241.24   251.59   566.50   835.02
 x_to_yz                          12609 15.3   457.15   480.34   722.01   765.44
 mp_sync                              7  5.9   310.50   621.01   310.50   621.01
 pw_scatter_p                     12609 14.3   505.14   530.51   505.14   530.51
 pw_gather_p                      13031 12.7   472.23   497.01   472.23   497.01
 potential_pw2rs                    877 11.0     0.57     0.67   480.37   488.66
 mp_sum_d                         13939 10.1   130.92   378.22   130.92   378.22
 rs_pw_transfer                   13050 10.0     0.20     0.24   288.14   342.40
 dbcsr_multiply_generic           13329 10.6     0.79     0.87   266.44   281.41
 qs_scf_new_mos                     865  6.0     0.01     0.01   239.97   244.48
 qs_scf_loop_do_ot                  865  7.0     0.01     0.01   239.96   244.47
 prepare_preconditioner              79  6.0     0.00     0.00   132.11   223.83
 multiply_cannon                  13329 11.6     1.45     1.68   196.56   218.48
 mp_alltoall_d54                    865 11.0    63.21   211.09    63.21   211.09
 ot_scf_mini                        865  8.0     0.04     0.05   208.13   210.63
 make_preconditioner                158  7.0     0.00     0.00   124.22   210.23
 -------------------------------------------------------------------------------

 The number of warnings for this run is : 0
 
 -------------------------------------------------------------------------------
  **** **** ******  **  PROGRAM ENDED AT                 2021-09-18 00:27:32.977
 ***** ** ***  *** **   PROGRAM RAN ON                                     dmn05
 **    ****   ******    PROGRAM RAN BY                                     fabio
 ***** **    ** ** **   PROGRAM PROCESS ID                                171297
  **** **  *******  **  PROGRAM STOPPED IN                   /scratch/fabio/5625
